+ 0 0 2 tcp 1000 C------ 0 0.0 4.0 0 0
- 0 0 2 tcp 1000 C------ 0 0.0 4.0 0 0
r 0.0028 0 2 tcp 1000 C------ 0 0.0 4.0 0 0
+ 0.0028 2 3 tcp 1000 C------ 0 0.0 4.0 0 0
- 0.0028 2 3 tcp 1000 C------ 0 0.0 4.0 0 0
r 0.018133 2 3 tcp 1000 C------ 0 0.0 4.0 0 0
+ 0.018133 3 4 tcp 1000 C------ 0 0.0 4.0 0 0
- 0.018133 3 4 tcp 1000 C------ 0 0.0 4.0 0 0
r 0.022933 3 4 tcp 1000 C------ 0 0.0 4.0 0 0
+ 0.022933 4 3 ack 40 C------ 0 4.0 0.0 0 1
- 0.022933 4 3 ack 40 C------ 0 4.0 0.0 0 1
r 0.026965 4 3 ack 40 C------ 0 4.0 0.0 0 1
+ 0.026965 3 2 ack 40 C------ 0 4.0 0.0 0 1
- 0.026965 3 2 ack 40 C------ 0 4.0 0.0 0 1
r 0.037179 3 2 ack 40 C------ 0 4.0 0.0 0 1
+ 0.037179 2 0 ack 40 C------ 0 4.0 0.0 0 1
- 0.037179 2 0 ack 40 C------ 0 4.0 0.0 0 1
r 0.039211 2 0 ack 40 C------ 0 4.0 0.0 0 1
+ 0.039211 0 2 tcp 1000 ------N 0 0.0 4.0 1 2
- 0.039211 0 2 tcp 1000 ------N 0 0.0 4.0 1 2
+ 0.039211 0 2 tcp 1000 ------N 0 0.0 4.0 2 3
- 0.040011 0 2 tcp 1000 ------N 0 0.0 4.0 2 3
r 0.042011 0 2 tcp 1000 ------N 0 0.0 4.0 1 2
+ 0.042011 2 3 tcp 1000 ------N 0 0.0 4.0 1 2
- 0.042011 2 3 tcp 1000 ------N 0 0.0 4.0 1 2
r 0.042811 0 2 tcp 1000 ------N 0 0.0 4.0 2 3
+ 0.042811 2 3 tcp 1000 ------N 0 0.0 4.0 2 3
- 0.047344 2 3 tcp 1000 ------N 0 0.0 4.0 2 3
r 0.057344 2 3 tcp 1000 ------N 0 0.0 4.0 1 2
+ 0.057344 3 4 tcp 1000 ------N 0 0.0 4.0 1 2
- 0.057344 3 4 tcp 1000 ------N 0 0.0 4.0 1 2
r 0.062144 3 4 tcp 1000 ------N 0 0.0 4.0 1 2
+ 0.062144 4 3 ack 40 ------- 0 4.0 0.0 1 4
- 0.062144 4 3 ack 40 ------- 0 4.0 0.0 1 4
r 0.062677 2 3 tcp 1000 ------N 0 0.0 4.0 2 3
+ 0.062677 3 4 tcp 1000 ------N 0 0.0 4.0 2 3
- 0.062677 3 4 tcp 1000 ------N 0 0.0 4.0 2 3
r 0.066176 4 3 ack 40 ------- 0 4.0 0.0 1 4
+ 0.066176 3 2 ack 40 ------- 0 4.0 0.0 1 4
- 0.066176 3 2 ack 40 ------- 0 4.0 0.0 1 4
r 0.067477 3 4 tcp 1000 ------N 0 0.0 4.0 2 3
+ 0.067477 4 3 ack 40 ------- 0 4.0 0.0 2 5
- 0.067477 4 3 ack 40 ------- 0 4.0 0.0 2 5
r 0.071509 4 3 ack 40 ------- 0 4.0 0.0 2 5
+ 0.071509 3 2 ack 40 ------- 0 4.0 0.0 2 5
- 0.071509 3 2 ack 40 ------- 0 4.0 0.0 2 5
r 0.076389 3 2 ack 40 ------- 0 4.0 0.0 1 4
+ 0.076389 2 0 ack 40 ------- 0 4.0 0.0 1 4
- 0.076389 2 0 ack 40 ------- 0 4.0 0.0 1 4
r 0.078421 2 0 ack 40 ------- 0 4.0 0.0 1 4
+ 0.078421 0 2 tcp 1000 ------N 0 0.0 4.0 3 6
- 0.078421 0 2 tcp 1000 ------N 0 0.0 4.0 3 6
+ 0.078421 0 2 tcp 1000 ------N 0 0.0 4.0 4 7
- 0.079221 0 2 tcp 1000 ------N 0 0.0 4.0 4 7
r 0.081221 0 2 tcp 1000 ------N 0 0.0 4.0 3 6
+ 0.081221 2 3 tcp 1000 ------N 0 0.0 4.0 3 6
- 0.081221 2 3 tcp 1000 ------N 0 0.0 4.0 3 6
r 0.081723 3 2 ack 40 ------- 0 4.0 0.0 2 5
+ 0.081723 2 0 ack 40 ------- 0 4.0 0.0 2 5
- 0.081723 2 0 ack 40 ------- 0 4.0 0.0 2 5
r 0.082021 0 2 tcp 1000 ------N 0 0.0 4.0 4 7
+ 0.082021 2 3 tcp 1000 ------N 0 0.0 4.0 4 7
r 0.083755 2 0 ack 40 ------- 0 4.0 0.0 2 5
+ 0.083755 0 2 tcp 1000 ------N 0 0.0 4.0 5 8
- 0.083755 0 2 tcp 1000 ------N 0 0.0 4.0 5 8
+ 0.083755 0 2 tcp 1000 ------N 0 0.0 4.0 6 9
- 0.084555 0 2 tcp 1000 ------N 0 0.0 4.0 6 9
- 0.086555 2 3 tcp 1000 ------N 0 0.0 4.0 4 7
r 0.086555 0 2 tcp 1000 ------N 0 0.0 4.0 5 8
+ 0.086555 2 3 tcp 1000 ------N 0 0.0 4.0 5 8
r 0.087355 0 2 tcp 1000 ------N 0 0.0 4.0 6 9
+ 0.087355 2 3 tcp 1000 ------N 0 0.0 4.0 6 9
- 0.091888 2 3 tcp 1000 ------N 0 0.0 4.0 5 8
r 0.096555 2 3 tcp 1000 ------N 0 0.0 4.0 3 6
+ 0.096555 3 4 tcp 1000 ------N 0 0.0 4.0 3 6
- 0.096555 3 4 tcp 1000 ------N 0 0.0 4.0 3 6
- 0.097221 2 3 tcp 1000 ------N 0 0.0 4.0 6 9
r 0.101355 3 4 tcp 1000 ------N 0 0.0 4.0 3 6
+ 0.101355 4 3 ack 40 ------- 0 4.0 0.0 3 10
- 0.101355 4 3 ack 40 ------- 0 4.0 0.0 3 10
r 0.101888 2 3 tcp 1000 ------N 0 0.0 4.0 4 7
+ 0.101888 3 4 tcp 1000 ------N 0 0.0 4.0 4 7
- 0.101888 3 4 tcp 1000 ------N 0 0.0 4.0 4 7
r 0.105387 4 3 ack 40 ------- 0 4.0 0.0 3 10
+ 0.105387 3 2 ack 40 ------- 0 4.0 0.0 3 10
- 0.105387 3 2 ack 40 ------- 0 4.0 0.0 3 10
r 0.106688 3 4 tcp 1000 ------N 0 0.0 4.0 4 7
+ 0.106688 4 3 ack 40 ------- 0 4.0 0.0 4 11
- 0.106688 4 3 ack 40 ------- 0 4.0 0.0 4 11
r 0.107221 2 3 tcp 1000 ------N 0 0.0 4.0 5 8
+ 0.107221 3 4 tcp 1000 ------N 0 0.0 4.0 5 8
- 0.107221 3 4 tcp 1000 ------N 0 0.0 4.0 5 8
r 0.11072 4 3 ack 40 ------- 0 4.0 0.0 4 11
+ 0.11072 3 2 ack 40 ------- 0 4.0 0.0 4 11
- 0.11072 3 2 ack 40 ------- 0 4.0 0.0 4 11
r 0.112021 3 4 tcp 1000 ------N 0 0.0 4.0 5 8
+ 0.112021 4 3 ack 40 ------- 0 4.0 0.0 5 12
- 0.112021 4 3 ack 40 ------- 0 4.0 0.0 5 12
r 0.112555 2 3 tcp 1000 ------N 0 0.0 4.0 6 9
+ 0.112555 3 4 tcp 1000 ------N 0 0.0 4.0 6 9
- 0.112555 3 4 tcp 1000 ------N 0 0.0 4.0 6 9
r 0.1156 3 2 ack 40 ------- 0 4.0 0.0 3 10
+ 0.1156 2 0 ack 40 ------- 0 4.0 0.0 3 10
- 0.1156 2 0 ack 40 ------- 0 4.0 0.0 3 10
r 0.116053 4 3 ack 40 ------- 0 4.0 0.0 5 12
+ 0.116053 3 2 ack 40 ------- 0 4.0 0.0 5 12
- 0.116053 3 2 ack 40 ------- 0 4.0 0.0 5 12
r 0.117355 3 4 tcp 1000 ------N 0 0.0 4.0 6 9
+ 0.117355 4 3 ack 40 ------- 0 4.0 0.0 6 13
- 0.117355 4 3 ack 40 ------- 0 4.0 0.0 6 13
r 0.117632 2 0 ack 40 ------- 0 4.0 0.0 3 10
+ 0.117632 0 2 tcp 1000 ------N 0 0.0 4.0 7 14
- 0.117632 0 2 tcp 1000 ------N 0 0.0 4.0 7 14
+ 0.117632 0 2 tcp 1000 ------N 0 0.0 4.0 8 15
- 0.118432 0 2 tcp 1000 ------N 0 0.0 4.0 8 15
r 0.120432 0 2 tcp 1000 ------N 0 0.0 4.0 7 14
+ 0.120432 2 3 tcp 1000 ------N 0 0.0 4.0 7 14
- 0.120432 2 3 tcp 1000 ------N 0 0.0 4.0 7 14
r 0.120933 3 2 ack 40 ------- 0 4.0 0.0 4 11
+ 0.120933 2 0 ack 40 ------- 0 4.0 0.0 4 11
- 0.120933 2 0 ack 40 ------- 0 4.0 0.0 4 11
r 0.121232 0 2 tcp 1000 ------N 0 0.0 4.0 8 15
+ 0.121232 2 3 tcp 1000 ------N 0 0.0 4.0 8 15
r 0.121387 4 3 ack 40 ------- 0 4.0 0.0 6 13
+ 0.121387 3 2 ack 40 ------- 0 4.0 0.0 6 13
- 0.121387 3 2 ack 40 ------- 0 4.0 0.0 6 13
r 0.122965 2 0 ack 40 ------- 0 4.0 0.0 4 11
+ 0.122965 0 2 tcp 1000 ------N 0 0.0 4.0 9 16
- 0.122965 0 2 tcp 1000 ------N 0 0.0 4.0 9 16
+ 0.122965 0 2 tcp 1000 ------N 0 0.0 4.0 10 17
- 0.123765 0 2 tcp 1000 ------N 0 0.0 4.0 10 17
- 0.125765 2 3 tcp 1000 ------N 0 0.0 4.0 8 15
r 0.125765 0 2 tcp 1000 ------N 0 0.0 4.0 9 16
+ 0.125765 2 3 tcp 1000 ------N 0 0.0 4.0 9 16
r 0.126267 3 2 ack 40 ------- 0 4.0 0.0 5 12
+ 0.126267 2 0 ack 40 ------- 0 4.0 0.0 5 12
- 0.126267 2 0 ack 40 ------- 0 4.0 0.0 5 12
r 0.126565 0 2 tcp 1000 ------N 0 0.0 4.0 10 17
+ 0.126565 2 3 tcp 1000 ------N 0 0.0 4.0 10 17
r 0.128299 2 0 ack 40 ------- 0 4.0 0.0 5 12
+ 0.128299 0 2 tcp 1000 ------N 0 0.0 4.0 11 18
- 0.128299 0 2 tcp 1000 ------N 0 0.0 4.0 11 18
+ 0.128299 0 2 tcp 1000 ------N 0 0.0 4.0 12 19
- 0.129099 0 2 tcp 1000 ------N 0 0.0 4.0 12 19
r 0.131099 0 2 tcp 1000 ------N 0 0.0 4.0 11 18
+ 0.131099 2 3 tcp 1000 ------N 0 0.0 4.0 11 18
- 0.131099 2 3 tcp 1000 ------N 0 0.0 4.0 9 16
r 0.1316 3 2 ack 40 ------- 0 4.0 0.0 6 13
+ 0.1316 2 0 ack 40 ------- 0 4.0 0.0 6 13
- 0.1316 2 0 ack 40 ------- 0 4.0 0.0 6 13
r 0.131899 0 2 tcp 1000 ------N 0 0.0 4.0 12 19
+ 0.131899 2 3 tcp 1000 ------N 0 0.0 4.0 12 19
r 0.133632 2 0 ack 40 ------- 0 4.0 0.0 6 13
+ 0.133632 0 2 tcp 1000 ------N 0 0.0 4.0 13 20
- 0.133632 0 2 tcp 1000 ------N 0 0.0 4.0 13 20
+ 0.133632 0 2 tcp 1000 ------N 0 0.0 4.0 14 21
- 0.134432 0 2 tcp 1000 ------N 0 0.0 4.0 14 21
r 0.135765 2 3 tcp 1000 ------N 0 0.0 4.0 7 14
+ 0.135765 3 4 tcp 1000 ------N 0 0.0 4.0 7 14
- 0.135765 3 4 tcp 1000 ------N 0 0.0 4.0 7 14
r 0.136432 0 2 tcp 1000 ------N 0 0.0 4.0 13 20
+ 0.136432 2 3 tcp 1000 ------N 0 0.0 4.0 13 20
- 0.136432 2 3 tcp 1000 ------N 0 0.0 4.0 10 17
r 0.137232 0 2 tcp 1000 ------N 0 0.0 4.0 14 21
+ 0.137232 2 3 tcp 1000 ------N 0 0.0 4.0 14 21
r 0.140565 3 4 tcp 1000 ------N 0 0.0 4.0 7 14
+ 0.140565 4 3 ack 40 ------- 0 4.0 0.0 7 22
- 0.140565 4 3 ack 40 ------- 0 4.0 0.0 7 22
r 0.141099 2 3 tcp 1000 ------N 0 0.0 4.0 8 15
+ 0.141099 3 4 tcp 1000 ------N 0 0.0 4.0 8 15
- 0.141099 3 4 tcp 1000 ------N 0 0.0 4.0 8 15
- 0.141765 2 3 tcp 1000 ------N 0 0.0 4.0 11 18
r 0.144597 4 3 ack 40 ------- 0 4.0 0.0 7 22
+ 0.144597 3 2 ack 40 ------- 0 4.0 0.0 7 22
- 0.144597 3 2 ack 40 ------- 0 4.0 0.0 7 22
r 0.145899 3 4 tcp 1000 ------N 0 0.0 4.0 8 15
+ 0.145899 4 3 ack 40 ------- 0 4.0 0.0 8 23
- 0.145899 4 3 ack 40 ------- 0 4.0 0.0 8 23
r 0.146432 2 3 tcp 1000 ------N 0 0.0 4.0 9 16
+ 0.146432 3 4 tcp 1000 ------N 0 0.0 4.0 9 16
- 0.146432 3 4 tcp 1000 ------N 0 0.0 4.0 9 16
- 0.147099 2 3 tcp 1000 ------N 0 0.0 4.0 12 19
r 0.149931 4 3 ack 40 ------- 0 4.0 0.0 8 23
+ 0.149931 3 2 ack 40 ------- 0 4.0 0.0 8 23
- 0.149931 3 2 ack 40 ------- 0 4.0 0.0 8 23
r 0.151232 3 4 tcp 1000 ------N 0 0.0 4.0 9 16
+ 0.151232 4 3 ack 40 ------- 0 4.0 0.0 9 24
- 0.151232 4 3 ack 40 ------- 0 4.0 0.0 9 24
r 0.151765 2 3 tcp 1000 ------N 0 0.0 4.0 10 17
+ 0.151765 3 4 tcp 1000 ------N 0 0.0 4.0 10 17
- 0.151765 3 4 tcp 1000 ------N 0 0.0 4.0 10 17
- 0.152432 2 3 tcp 1000 ------N 0 0.0 4.0 13 20
r 0.154811 3 2 ack 40 ------- 0 4.0 0.0 7 22
+ 0.154811 2 0 ack 40 ------- 0 4.0 0.0 7 22
- 0.154811 2 0 ack 40 ------- 0 4.0 0.0 7 22
r 0.155264 4 3 ack 40 ------- 0 4.0 0.0 9 24
+ 0.155264 3 2 ack 40 ------- 0 4.0 0.0 9 24
- 0.155264 3 2 ack 40 ------- 0 4.0 0.0 9 24
r 0.156565 3 4 tcp 1000 ------N 0 0.0 4.0 10 17
+ 0.156565 4 3 ack 40 ------- 0 4.0 0.0 10 25
- 0.156565 4 3 ack 40 ------- 0 4.0 0.0 10 25
r 0.156843 2 0 ack 40 ------- 0 4.0 0.0 7 22
+ 0.156843 0 2 tcp 1000 ------N 0 0.0 4.0 15 26
- 0.156843 0 2 tcp 1000 ------N 0 0.0 4.0 15 26
+ 0.156843 0 2 tcp 1000 ------N 0 0.0 4.0 16 27
r 0.157099 2 3 tcp 1000 ------N 0 0.0 4.0 11 18
+ 0.157099 3 4 tcp 1000 ------N 0 0.0 4.0 11 18
- 0.157099 3 4 tcp 1000 ------N 0 0.0 4.0 11 18
- 0.157643 0 2 tcp 1000 ------N 0 0.0 4.0 16 27
- 0.157765 2 3 tcp 1000 ------N 0 0.0 4.0 14 21
r 0.159643 0 2 tcp 1000 ------N 0 0.0 4.0 15 26
+ 0.159643 2 3 tcp 1000 ------N 0 0.0 4.0 15 26
r 0.160144 3 2 ack 40 ------- 0 4.0 0.0 8 23
+ 0.160144 2 0 ack 40 ------- 0 4.0 0.0 8 23
- 0.160144 2 0 ack 40 ------- 0 4.0 0.0 8 23
r 0.160443 0 2 tcp 1000 ------N 0 0.0 4.0 16 27
+ 0.160443 2 3 tcp 1000 ------N 0 0.0 4.0 16 27
r 0.160597 4 3 ack 40 ------- 0 4.0 0.0 10 25
+ 0.160597 3 2 ack 40 ------- 0 4.0 0.0 10 25
- 0.160597 3 2 ack 40 ------- 0 4.0 0.0 10 25
r 0.161899 3 4 tcp 1000 ------N 0 0.0 4.0 11 18
+ 0.161899 4 3 ack 40 ------- 0 4.0 0.0 11 28
- 0.161899 4 3 ack 40 ------- 0 4.0 0.0 11 28
r 0.162176 2 0 ack 40 ------- 0 4.0 0.0 8 23
+ 0.162176 0 2 tcp 1000 ------N 0 0.0 4.0 17 29
- 0.162176 0 2 tcp 1000 ------N 0 0.0 4.0 17 29
+ 0.162176 0 2 tcp 1000 ------N 0 0.0 4.0 18 30
r 0.162432 2 3 tcp 1000 ------N 0 0.0 4.0 12 19
+ 0.162432 3 4 tcp 1000 ------N 0 0.0 4.0 12 19
- 0.162432 3 4 tcp 1000 ------N 0 0.0 4.0 12 19
- 0.162976 0 2 tcp 1000 ------N 0 0.0 4.0 18 30
- 0.163099 2 3 tcp 1000 ------N 0 0.0 4.0 15 26
r 0.164976 0 2 tcp 1000 ------N 0 0.0 4.0 17 29
+ 0.164976 2 3 tcp 1000 ------N 0 0.0 4.0 17 29
r 0.165477 3 2 ack 40 ------- 0 4.0 0.0 9 24
+ 0.165477 2 0 ack 40 ------- 0 4.0 0.0 9 24
- 0.165477 2 0 ack 40 ------- 0 4.0 0.0 9 24
r 0.165776 0 2 tcp 1000 ------N 0 0.0 4.0 18 30
+ 0.165776 2 3 tcp 1000 ------N 0 0.0 4.0 18 30
r 0.165931 4 3 ack 40 ------- 0 4.0 0.0 11 28
+ 0.165931 3 2 ack 40 ------- 0 4.0 0.0 11 28
- 0.165931 3 2 ack 40 ------- 0 4.0 0.0 11 28
r 0.167232 3 4 tcp 1000 ------N 0 0.0 4.0 12 19
+ 0.167232 4 3 ack 40 ------- 0 4.0 0.0 12 31
- 0.167232 4 3 ack 40 ------- 0 4.0 0.0 12 31
r 0.167509 2 0 ack 40 ------- 0 4.0 0.0 9 24
+ 0.167509 0 2 tcp 1000 ------N 0 0.0 4.0 19 32
- 0.167509 0 2 tcp 1000 ------N 0 0.0 4.0 19 32
+ 0.167509 0 2 tcp 1000 ------N 0 0.0 4.0 20 33
r 0.167765 2 3 tcp 1000 ------N 0 0.0 4.0 13 20
+ 0.167765 3 4 tcp 1000 ------N 0 0.0 4.0 13 20
- 0.167765 3 4 tcp 1000 ------N 0 0.0 4.0 13 20
- 0.168309 0 2 tcp 1000 ------N 0 0.0 4.0 20 33
- 0.168432 2 3 tcp 1000 ------N 0 0.0 4.0 16 27
r 0.170309 0 2 tcp 1000 ------N 0 0.0 4.0 19 32
+ 0.170309 2 3 tcp 1000 ------N 0 0.0 4.0 19 32
r 0.170811 3 2 ack 40 ------- 0 4.0 0.0 10 25
+ 0.170811 2 0 ack 40 ------- 0 4.0 0.0 10 25
- 0.170811 2 0 ack 40 ------- 0 4.0 0.0 10 25
r 0.171109 0 2 tcp 1000 ------N 0 0.0 4.0 20 33
+ 0.171109 2 3 tcp 1000 ------N 0 0.0 4.0 20 33
r 0.171264 4 3 ack 40 ------- 0 4.0 0.0 12 31
+ 0.171264 3 2 ack 40 ------- 0 4.0 0.0 12 31
- 0.171264 3 2 ack 40 ------- 0 4.0 0.0 12 31
r 0.172565 3 4 tcp 1000 ------N 0 0.0 4.0 13 20
+ 0.172565 4 3 ack 40 ------- 0 4.0 0.0 13 34
- 0.172565 4 3 ack 40 ------- 0 4.0 0.0 13 34
r 0.172843 2 0 ack 40 ------- 0 4.0 0.0 10 25
+ 0.172843 0 2 tcp 1000 ------N 0 0.0 4.0 21 35
- 0.172843 0 2 tcp 1000 ------N 0 0.0 4.0 21 35
+ 0.172843 0 2 tcp 1000 ------N 0 0.0 4.0 22 36
r 0.173099 2 3 tcp 1000 ------N 0 0.0 4.0 14 21
+ 0.173099 3 4 tcp 1000 ------N 0 0.0 4.0 14 21
- 0.173099 3 4 tcp 1000 ------N 0 0.0 4.0 14 21
- 0.173643 0 2 tcp 1000 ------N 0 0.0 4.0 22 36
- 0.173765 2 3 tcp 1000 ------N 0 0.0 4.0 17 29
r 0.175643 0 2 tcp 1000 ------N 0 0.0 4.0 21 35
+ 0.175643 2 3 tcp 1000 ------N 0 0.0 4.0 21 35
r 0.176144 3 2 ack 40 ------- 0 4.0 0.0 11 28
+ 0.176144 2 0 ack 40 ------- 0 4.0 0.0 11 28
- 0.176144 2 0 ack 40 ------- 0 4.0 0.0 11 28
r 0.176443 0 2 tcp 1000 ------N 0 0.0 4.0 22 36
+ 0.176443 2 3 tcp 1000 ------N 0 0.0 4.0 22 36
r 0.176597 4 3 ack 40 ------- 0 4.0 0.0 13 34
+ 0.176597 3 2 ack 40 ------- 0 4.0 0.0 13 34
- 0.176597 3 2 ack 40 ------- 0 4.0 0.0 13 34
r 0.177899 3 4 tcp 1000 ------N 0 0.0 4.0 14 21
+ 0.177899 4 3 ack 40 ------- 0 4.0 0.0 14 37
- 0.177899 4 3 ack 40 ------- 0 4.0 0.0 14 37
r 0.178176 2 0 ack 40 ------- 0 4.0 0.0 11 28
+ 0.178176 0 2 tcp 1000 ------N 0 0.0 4.0 23 38
- 0.178176 0 2 tcp 1000 ------N 0 0.0 4.0 23 38
+ 0.178176 0 2 tcp 1000 ------N 0 0.0 4.0 24 39
r 0.178432 2 3 tcp 1000 ------N 0 0.0 4.0 15 26
+ 0.178432 3 4 tcp 1000 ------N 0 0.0 4.0 15 26
- 0.178432 3 4 tcp 1000 ------N 0 0.0 4.0 15 26
- 0.178976 0 2 tcp 1000 ------N 0 0.0 4.0 24 39
- 0.179099 2 3 tcp 1000 ------N 0 0.0 4.0 18 30
r 0.180976 0 2 tcp 1000 ------N 0 0.0 4.0 23 38
+ 0.180976 2 3 tcp 1000 ------N 0 0.0 4.0 23 38
r 0.181477 3 2 ack 40 ------- 0 4.0 0.0 12 31
+ 0.181477 2 0 ack 40 ------- 0 4.0 0.0 12 31
- 0.181477 2 0 ack 40 ------- 0 4.0 0.0 12 31
r 0.181776 0 2 tcp 1000 ------N 0 0.0 4.0 24 39
+ 0.181776 2 3 tcp 1000 ------N 0 0.0 4.0 24 39
r 0.181931 4 3 ack 40 ------- 0 4.0 0.0 14 37
+ 0.181931 3 2 ack 40 ------- 0 4.0 0.0 14 37
- 0.181931 3 2 ack 40 ------- 0 4.0 0.0 14 37
r 0.183232 3 4 tcp 1000 ------N 0 0.0 4.0 15 26
+ 0.183232 4 3 ack 40 ------- 0 4.0 0.0 15 40
- 0.183232 4 3 ack 40 ------- 0 4.0 0.0 15 40
r 0.183509 2 0 ack 40 ------- 0 4.0 0.0 12 31
+ 0.183509 0 2 tcp 1000 ------N 0 0.0 4.0 25 41
- 0.183509 0 2 tcp 1000 ------N 0 0.0 4.0 25 41
+ 0.183509 0 2 tcp 1000 ------N 0 0.0 4.0 26 42
r 0.183765 2 3 tcp 1000 ------N 0 0.0 4.0 16 27
+ 0.183765 3 4 tcp 1000 ------N 0 0.0 4.0 16 27
- 0.183765 3 4 tcp 1000 ------N 0 0.0 4.0 16 27
- 0.184309 0 2 tcp 1000 ------N 0 0.0 4.0 26 42
- 0.184432 2 3 tcp 1000 ------N 0 0.0 4.0 19 32
r 0.186309 0 2 tcp 1000 ------N 0 0.0 4.0 25 41
+ 0.186309 2 3 tcp 1000 ------N 0 0.0 4.0 25 41
r 0.186811 3 2 ack 40 ------- 0 4.0 0.0 13 34
+ 0.186811 2 0 ack 40 ------- 0 4.0 0.0 13 34
- 0.186811 2 0 ack 40 ------- 0 4.0 0.0 13 34
r 0.187109 0 2 tcp 1000 ------N 0 0.0 4.0 26 42
+ 0.187109 2 3 tcp 1000 ------N 0 0.0 4.0 26 42
r 0.187264 4 3 ack 40 ------- 0 4.0 0.0 15 40
+ 0.187264 3 2 ack 40 ------- 0 4.0 0.0 15 40
- 0.187264 3 2 ack 40 ------- 0 4.0 0.0 15 40
r 0.188565 3 4 tcp 1000 ------N 0 0.0 4.0 16 27
+ 0.188565 4 3 ack 40 ------- 0 4.0 0.0 16 43
- 0.188565 4 3 ack 40 ------- 0 4.0 0.0 16 43
r 0.188843 2 0 ack 40 ------- 0 4.0 0.0 13 34
+ 0.188843 0 2 tcp 1000 ------N 0 0.0 4.0 27 44
- 0.188843 0 2 tcp 1000 ------N 0 0.0 4.0 27 44
+ 0.188843 0 2 tcp 1000 ------N 0 0.0 4.0 28 45
r 0.189099 2 3 tcp 1000 ------N 0 0.0 4.0 17 29
+ 0.189099 3 4 tcp 1000 ------N 0 0.0 4.0 17 29
- 0.189099 3 4 tcp 1000 ------N 0 0.0 4.0 17 29
- 0.189643 0 2 tcp 1000 ------N 0 0.0 4.0 28 45
- 0.189765 2 3 tcp 1000 ------N 0 0.0 4.0 20 33
r 0.191643 0 2 tcp 1000 ------N 0 0.0 4.0 27 44
+ 0.191643 2 3 tcp 1000 ------N 0 0.0 4.0 27 44
r 0.192144 3 2 ack 40 ------- 0 4.0 0.0 14 37
+ 0.192144 2 0 ack 40 ------- 0 4.0 0.0 14 37
- 0.192144 2 0 ack 40 ------- 0 4.0 0.0 14 37
r 0.192443 0 2 tcp 1000 ------N 0 0.0 4.0 28 45
+ 0.192443 2 3 tcp 1000 ------N 0 0.0 4.0 28 45
r 0.192597 4 3 ack 40 ------- 0 4.0 0.0 16 43
+ 0.192597 3 2 ack 40 ------- 0 4.0 0.0 16 43
- 0.192597 3 2 ack 40 ------- 0 4.0 0.0 16 43
r 0.193899 3 4 tcp 1000 ------N 0 0.0 4.0 17 29
+ 0.193899 4 3 ack 40 ------- 0 4.0 0.0 17 46
- 0.193899 4 3 ack 40 ------- 0 4.0 0.0 17 46
r 0.194176 2 0 ack 40 ------- 0 4.0 0.0 14 37
+ 0.194176 0 2 tcp 1000 ------N 0 0.0 4.0 29 47
- 0.194176 0 2 tcp 1000 ------N 0 0.0 4.0 29 47
+ 0.194176 0 2 tcp 1000 ------N 0 0.0 4.0 30 48
r 0.194432 2 3 tcp 1000 ------N 0 0.0 4.0 18 30
+ 0.194432 3 4 tcp 1000 ------N 0 0.0 4.0 18 30
- 0.194432 3 4 tcp 1000 ------N 0 0.0 4.0 18 30
- 0.194976 0 2 tcp 1000 ------N 0 0.0 4.0 30 48
- 0.195099 2 3 tcp 1000 ------N 0 0.0 4.0 21 35
r 0.196976 0 2 tcp 1000 ------N 0 0.0 4.0 29 47
+ 0.196976 2 3 tcp 1000 ------N 0 0.0 4.0 29 47
r 0.197477 3 2 ack 40 ------- 0 4.0 0.0 15 40
+ 0.197477 2 0 ack 40 ------- 0 4.0 0.0 15 40
- 0.197477 2 0 ack 40 ------- 0 4.0 0.0 15 40
r 0.197776 0 2 tcp 1000 ------N 0 0.0 4.0 30 48
+ 0.197776 2 3 tcp 1000 ------N 0 0.0 4.0 30 48
r 0.197931 4 3 ack 40 ------- 0 4.0 0.0 17 46
+ 0.197931 3 2 ack 40 ------- 0 4.0 0.0 17 46
- 0.197931 3 2 ack 40 ------- 0 4.0 0.0 17 46
r 0.199232 3 4 tcp 1000 ------N 0 0.0 4.0 18 30
+ 0.199232 4 3 ack 40 ------- 0 4.0 0.0 18 49
- 0.199232 4 3 ack 40 ------- 0 4.0 0.0 18 49
r 0.199509 2 0 ack 40 ------- 0 4.0 0.0 15 40
+ 0.199509 0 2 tcp 1000 ------N 0 0.0 4.0 31 50
- 0.199509 0 2 tcp 1000 ------N 0 0.0 4.0 31 50
+ 0.199509 0 2 tcp 1000 ------N 0 0.0 4.0 32 51
r 0.199765 2 3 tcp 1000 ------N 0 0.0 4.0 19 32
+ 0.199765 3 4 tcp 1000 ------N 0 0.0 4.0 19 32
- 0.199765 3 4 tcp 1000 ------N 0 0.0 4.0 19 32
- 0.200309 0 2 tcp 1000 ------N 0 0.0 4.0 32 51
- 0.200432 2 3 tcp 1000 ------N 0 0.0 4.0 22 36
r 0.202309 0 2 tcp 1000 ------N 0 0.0 4.0 31 50
+ 0.202309 2 3 tcp 1000 ------N 0 0.0 4.0 31 50
r 0.202811 3 2 ack 40 ------- 0 4.0 0.0 16 43
+ 0.202811 2 0 ack 40 ------- 0 4.0 0.0 16 43
- 0.202811 2 0 ack 40 ------- 0 4.0 0.0 16 43
r 0.203109 0 2 tcp 1000 ------N 0 0.0 4.0 32 51
+ 0.203109 2 3 tcp 1000 ------N 0 0.0 4.0 32 51
r 0.203264 4 3 ack 40 ------- 0 4.0 0.0 18 49
+ 0.203264 3 2 ack 40 ------- 0 4.0 0.0 18 49
- 0.203264 3 2 ack 40 ------- 0 4.0 0.0 18 49
r 0.204565 3 4 tcp 1000 ------N 0 0.0 4.0 19 32
+ 0.204565 4 3 ack 40 ------- 0 4.0 0.0 19 52
- 0.204565 4 3 ack 40 ------- 0 4.0 0.0 19 52
r 0.204843 2 0 ack 40 ------- 0 4.0 0.0 16 43
+ 0.204843 0 2 tcp 1000 ------N 0 0.0 4.0 33 53
- 0.204843 0 2 tcp 1000 ------N 0 0.0 4.0 33 53
+ 0.204843 0 2 tcp 1000 ------N 0 0.0 4.0 34 54
r 0.205099 2 3 tcp 1000 ------N 0 0.0 4.0 20 33
+ 0.205099 3 4 tcp 1000 ------N 0 0.0 4.0 20 33
- 0.205099 3 4 tcp 1000 ------N 0 0.0 4.0 20 33
- 0.205643 0 2 tcp 1000 ------N 0 0.0 4.0 34 54
- 0.205765 2 3 tcp 1000 ------N 0 0.0 4.0 23 38
r 0.207643 0 2 tcp 1000 ------N 0 0.0 4.0 33 53
+ 0.207643 2 3 tcp 1000 ------N 0 0.0 4.0 33 53
r 0.208144 3 2 ack 40 ------- 0 4.0 0.0 17 46
+ 0.208144 2 0 ack 40 ------- 0 4.0 0.0 17 46
- 0.208144 2 0 ack 40 ------- 0 4.0 0.0 17 46
r 0.208443 0 2 tcp 1000 ------N 0 0.0 4.0 34 54
+ 0.208443 2 3 tcp 1000 ------N 0 0.0 4.0 34 54
r 0.208597 4 3 ack 40 ------- 0 4.0 0.0 19 52
+ 0.208597 3 2 ack 40 ------- 0 4.0 0.0 19 52
- 0.208597 3 2 ack 40 ------- 0 4.0 0.0 19 52
r 0.209899 3 4 tcp 1000 ------N 0 0.0 4.0 20 33
+ 0.209899 4 3 ack 40 ------- 0 4.0 0.0 20 55
- 0.209899 4 3 ack 40 ------- 0 4.0 0.0 20 55
r 0.210176 2 0 ack 40 ------- 0 4.0 0.0 17 46
+ 0.210176 0 2 tcp 1000 ------N 0 0.0 4.0 35 56
- 0.210176 0 2 tcp 1000 ------N 0 0.0 4.0 35 56
+ 0.210176 0 2 tcp 1000 ------N 0 0.0 4.0 36 57
r 0.210432 2 3 tcp 1000 ------N 0 0.0 4.0 21 35
+ 0.210432 3 4 tcp 1000 ------N 0 0.0 4.0 21 35
- 0.210432 3 4 tcp 1000 ------N 0 0.0 4.0 21 35
- 0.210976 0 2 tcp 1000 ------N 0 0.0 4.0 36 57
- 0.211099 2 3 tcp 1000 ------N 0 0.0 4.0 24 39
r 0.212976 0 2 tcp 1000 ------N 0 0.0 4.0 35 56
+ 0.212976 2 3 tcp 1000 ------N 0 0.0 4.0 35 56
r 0.213477 3 2 ack 40 ------- 0 4.0 0.0 18 49
+ 0.213477 2 0 ack 40 ------- 0 4.0 0.0 18 49
- 0.213477 2 0 ack 40 ------- 0 4.0 0.0 18 49
r 0.213776 0 2 tcp 1000 ------N 0 0.0 4.0 36 57
+ 0.213776 2 3 tcp 1000 ------N 0 0.0 4.0 36 57
r 0.213931 4 3 ack 40 ------- 0 4.0 0.0 20 55
+ 0.213931 3 2 ack 40 ------- 0 4.0 0.0 20 55
- 0.213931 3 2 ack 40 ------- 0 4.0 0.0 20 55
r 0.215232 3 4 tcp 1000 ------N 0 0.0 4.0 21 35
+ 0.215232 4 3 ack 40 ------- 0 4.0 0.0 21 58
- 0.215232 4 3 ack 40 ------- 0 4.0 0.0 21 58
r 0.215509 2 0 ack 40 ------- 0 4.0 0.0 18 49
+ 0.215509 0 2 tcp 1000 ------N 0 0.0 4.0 37 59
- 0.215509 0 2 tcp 1000 ------N 0 0.0 4.0 37 59
+ 0.215509 0 2 tcp 1000 ------N 0 0.0 4.0 38 60
r 0.215765 2 3 tcp 1000 ------N 0 0.0 4.0 22 36
+ 0.215765 3 4 tcp 1000 ------N 0 0.0 4.0 22 36
- 0.215765 3 4 tcp 1000 ------N 0 0.0 4.0 22 36
- 0.216309 0 2 tcp 1000 ------N 0 0.0 4.0 38 60
- 0.216432 2 3 tcp 1000 ------N 0 0.0 4.0 25 41
r 0.218309 0 2 tcp 1000 ------N 0 0.0 4.0 37 59
+ 0.218309 2 3 tcp 1000 ------N 0 0.0 4.0 37 59
r 0.218811 3 2 ack 40 ------- 0 4.0 0.0 19 52
+ 0.218811 2 0 ack 40 ------- 0 4.0 0.0 19 52
- 0.218811 2 0 ack 40 ------- 0 4.0 0.0 19 52
r 0.219109 0 2 tcp 1000 ------N 0 0.0 4.0 38 60
+ 0.219109 2 3 tcp 1000 ------N 0 0.0 4.0 38 60
r 0.219264 4 3 ack 40 ------- 0 4.0 0.0 21 58
+ 0.219264 3 2 ack 40 ------- 0 4.0 0.0 21 58
- 0.219264 3 2 ack 40 ------- 0 4.0 0.0 21 58
r 0.220565 3 4 tcp 1000 ------N 0 0.0 4.0 22 36
+ 0.220565 4 3 ack 40 ------- 0 4.0 0.0 22 61
- 0.220565 4 3 ack 40 ------- 0 4.0 0.0 22 61
r 0.220843 2 0 ack 40 ------- 0 4.0 0.0 19 52
+ 0.220843 0 2 tcp 1000 ------N 0 0.0 4.0 39 62
- 0.220843 0 2 tcp 1000 ------N 0 0.0 4.0 39 62
+ 0.220843 0 2 tcp 1000 ------N 0 0.0 4.0 40 63
r 0.221099 2 3 tcp 1000 ------N 0 0.0 4.0 23 38
+ 0.221099 3 4 tcp 1000 ------N 0 0.0 4.0 23 38
- 0.221099 3 4 tcp 1000 ------N 0 0.0 4.0 23 38
- 0.221643 0 2 tcp 1000 ------N 0 0.0 4.0 40 63
- 0.221765 2 3 tcp 1000 ------N 0 0.0 4.0 26 42
r 0.223643 0 2 tcp 1000 ------N 0 0.0 4.0 39 62
+ 0.223643 2 3 tcp 1000 ------N 0 0.0 4.0 39 62
r 0.224144 3 2 ack 40 ------- 0 4.0 0.0 20 55
+ 0.224144 2 0 ack 40 ------- 0 4.0 0.0 20 55
- 0.224144 2 0 ack 40 ------- 0 4.0 0.0 20 55
r 0.224443 0 2 tcp 1000 ------N 0 0.0 4.0 40 63
+ 0.224443 2 3 tcp 1000 ------N 0 0.0 4.0 40 63
r 0.224597 4 3 ack 40 ------- 0 4.0 0.0 22 61
+ 0.224597 3 2 ack 40 ------- 0 4.0 0.0 22 61
- 0.224597 3 2 ack 40 ------- 0 4.0 0.0 22 61
r 0.225899 3 4 tcp 1000 ------N 0 0.0 4.0 23 38
+ 0.225899 4 3 ack 40 ------- 0 4.0 0.0 23 64
- 0.225899 4 3 ack 40 ------- 0 4.0 0.0 23 64
r 0.226176 2 0 ack 40 ------- 0 4.0 0.0 20 55
+ 0.226176 0 2 tcp 1000 ------N 0 0.0 4.0 41 65
- 0.226176 0 2 tcp 1000 ------N 0 0.0 4.0 41 65
+ 0.226176 0 2 tcp 1000 ------N 0 0.0 4.0 42 66
r 0.226432 2 3 tcp 1000 ------N 0 0.0 4.0 24 39
+ 0.226432 3 4 tcp 1000 ------N 0 0.0 4.0 24 39
- 0.226432 3 4 tcp 1000 ------N 0 0.0 4.0 24 39
- 0.226976 0 2 tcp 1000 ------N 0 0.0 4.0 42 66
- 0.227099 2 3 tcp 1000 ------N 0 0.0 4.0 27 44
r 0.228976 0 2 tcp 1000 ------N 0 0.0 4.0 41 65
+ 0.228976 2 3 tcp 1000 ------N 0 0.0 4.0 41 65
r 0.229477 3 2 ack 40 ------- 0 4.0 0.0 21 58
+ 0.229477 2 0 ack 40 ------- 0 4.0 0.0 21 58
- 0.229477 2 0 ack 40 ------- 0 4.0 0.0 21 58
r 0.229776 0 2 tcp 1000 ------N 0 0.0 4.0 42 66
+ 0.229776 2 3 tcp 1000 ------N 0 0.0 4.0 42 66
r 0.229931 4 3 ack 40 ------- 0 4.0 0.0 23 64
+ 0.229931 3 2 ack 40 ------- 0 4.0 0.0 23 64
- 0.229931 3 2 ack 40 ------- 0 4.0 0.0 23 64
r 0.231232 3 4 tcp 1000 ------N 0 0.0 4.0 24 39
+ 0.231232 4 3 ack 40 ------- 0 4.0 0.0 24 67
- 0.231232 4 3 ack 40 ------- 0 4.0 0.0 24 67
r 0.231509 2 0 ack 40 ------- 0 4.0 0.0 21 58
+ 0.231509 0 2 tcp 1000 ------N 0 0.0 4.0 43 68
- 0.231509 0 2 tcp 1000 ------N 0 0.0 4.0 43 68
+ 0.231509 0 2 tcp 1000 ------N 0 0.0 4.0 44 69
r 0.231765 2 3 tcp 1000 ------N 0 0.0 4.0 25 41
+ 0.231765 3 4 tcp 1000 ------N 0 0.0 4.0 25 41
- 0.231765 3 4 tcp 1000 ------N 0 0.0 4.0 25 41
- 0.232309 0 2 tcp 1000 ------N 0 0.0 4.0 44 69
- 0.232432 2 3 tcp 1000 ------N 0 0.0 4.0 28 45
r 0.234309 0 2 tcp 1000 ------N 0 0.0 4.0 43 68
+ 0.234309 2 3 tcp 1000 ------N 0 0.0 4.0 43 68
r 0.234811 3 2 ack 40 ------- 0 4.0 0.0 22 61
+ 0.234811 2 0 ack 40 ------- 0 4.0 0.0 22 61
- 0.234811 2 0 ack 40 ------- 0 4.0 0.0 22 61
r 0.235109 0 2 tcp 1000 ------N 0 0.0 4.0 44 69
+ 0.235109 2 3 tcp 1000 ------N 0 0.0 4.0 44 69
r 0.235264 4 3 ack 40 ------- 0 4.0 0.0 24 67
+ 0.235264 3 2 ack 40 ------- 0 4.0 0.0 24 67
- 0.235264 3 2 ack 40 ------- 0 4.0 0.0 24 67
r 0.236565 3 4 tcp 1000 ------N 0 0.0 4.0 25 41
+ 0.236565 4 3 ack 40 ------- 0 4.0 0.0 25 70
- 0.236565 4 3 ack 40 ------- 0 4.0 0.0 25 70
r 0.236843 2 0 ack 40 ------- 0 4.0 0.0 22 61
+ 0.236843 0 2 tcp 1000 ------N 0 0.0 4.0 45 71
- 0.236843 0 2 tcp 1000 ------N 0 0.0 4.0 45 71
+ 0.236843 0 2 tcp 1000 ------N 0 0.0 4.0 46 72
r 0.237099 2 3 tcp 1000 ------N 0 0.0 4.0 26 42
+ 0.237099 3 4 tcp 1000 ------N 0 0.0 4.0 26 42
- 0.237099 3 4 tcp 1000 ------N 0 0.0 4.0 26 42
- 0.237643 0 2 tcp 1000 ------N 0 0.0 4.0 46 72
- 0.237765 2 3 tcp 1000 ------N 0 0.0 4.0 29 47
r 0.239643 0 2 tcp 1000 ------N 0 0.0 4.0 45 71
+ 0.239643 2 3 tcp 1000 ------N 0 0.0 4.0 45 71
r 0.240144 3 2 ack 40 ------- 0 4.0 0.0 23 64
+ 0.240144 2 0 ack 40 ------- 0 4.0 0.0 23 64
- 0.240144 2 0 ack 40 ------- 0 4.0 0.0 23 64
r 0.240443 0 2 tcp 1000 ------N 0 0.0 4.0 46 72
+ 0.240443 2 3 tcp 1000 ------N 0 0.0 4.0 46 72
r 0.240597 4 3 ack 40 ------- 0 4.0 0.0 25 70
+ 0.240597 3 2 ack 40 ------- 0 4.0 0.0 25 70
- 0.240597 3 2 ack 40 ------- 0 4.0 0.0 25 70
r 0.241899 3 4 tcp 1000 ------N 0 0.0 4.0 26 42
+ 0.241899 4 3 ack 40 ------- 0 4.0 0.0 26 73
- 0.241899 4 3 ack 40 ------- 0 4.0 0.0 26 73
r 0.242176 2 0 ack 40 ------- 0 4.0 0.0 23 64
+ 0.242176 0 2 tcp 1000 ------N 0 0.0 4.0 47 74
- 0.242176 0 2 tcp 1000 ------N 0 0.0 4.0 47 74
+ 0.242176 0 2 tcp 1000 ------N 0 0.0 4.0 48 75
r 0.242432 2 3 tcp 1000 ------N 0 0.0 4.0 27 44
+ 0.242432 3 4 tcp 1000 ------N 0 0.0 4.0 27 44
- 0.242432 3 4 tcp 1000 ------N 0 0.0 4.0 27 44
- 0.242976 0 2 tcp 1000 ------N 0 0.0 4.0 48 75
- 0.243099 2 3 tcp 1000 ------N 0 0.0 4.0 30 48
r 0.244976 0 2 tcp 1000 ------N 0 0.0 4.0 47 74
+ 0.244976 2 3 tcp 1000 ------N 0 0.0 4.0 47 74
r 0.245477 3 2 ack 40 ------- 0 4.0 0.0 24 67
+ 0.245477 2 0 ack 40 ------- 0 4.0 0.0 24 67
- 0.245477 2 0 ack 40 ------- 0 4.0 0.0 24 67
r 0.245776 0 2 tcp 1000 ------N 0 0.0 4.0 48 75
+ 0.245776 2 3 tcp 1000 ------N 0 0.0 4.0 48 75
r 0.245931 4 3 ack 40 ------- 0 4.0 0.0 26 73
+ 0.245931 3 2 ack 40 ------- 0 4.0 0.0 26 73
- 0.245931 3 2 ack 40 ------- 0 4.0 0.0 26 73
r 0.247232 3 4 tcp 1000 ------N 0 0.0 4.0 27 44
+ 0.247232 4 3 ack 40 ------- 0 4.0 0.0 27 76
- 0.247232 4 3 ack 40 ------- 0 4.0 0.0 27 76
r 0.247509 2 0 ack 40 ------- 0 4.0 0.0 24 67
+ 0.247509 0 2 tcp 1000 ------N 0 0.0 4.0 49 77
- 0.247509 0 2 tcp 1000 ------N 0 0.0 4.0 49 77
+ 0.247509 0 2 tcp 1000 ------N 0 0.0 4.0 50 78
r 0.247765 2 3 tcp 1000 ------N 0 0.0 4.0 28 45
+ 0.247765 3 4 tcp 1000 ------N 0 0.0 4.0 28 45
- 0.247765 3 4 tcp 1000 ------N 0 0.0 4.0 28 45
- 0.248309 0 2 tcp 1000 ------N 0 0.0 4.0 50 78
- 0.248432 2 3 tcp 1000 ------N 0 0.0 4.0 31 50
r 0.250309 0 2 tcp 1000 ------N 0 0.0 4.0 49 77
+ 0.250309 2 3 tcp 1000 ------N 0 0.0 4.0 49 77
r 0.250811 3 2 ack 40 ------- 0 4.0 0.0 25 70
+ 0.250811 2 0 ack 40 ------- 0 4.0 0.0 25 70
- 0.250811 2 0 ack 40 ------- 0 4.0 0.0 25 70
r 0.251109 0 2 tcp 1000 ------N 0 0.0 4.0 50 78
+ 0.251109 2 3 tcp 1000 ------N 0 0.0 4.0 50 78
r 0.251264 4 3 ack 40 ------- 0 4.0 0.0 27 76
+ 0.251264 3 2 ack 40 ------- 0 4.0 0.0 27 76
- 0.251264 3 2 ack 40 ------- 0 4.0 0.0 27 76
r 0.252565 3 4 tcp 1000 ------N 0 0.0 4.0 28 45
+ 0.252565 4 3 ack 40 ------- 0 4.0 0.0 28 79
- 0.252565 4 3 ack 40 ------- 0 4.0 0.0 28 79
r 0.252843 2 0 ack 40 ------- 0 4.0 0.0 25 70
+ 0.252843 0 2 tcp 1000 ------N 0 0.0 4.0 51 80
- 0.252843 0 2 tcp 1000 ------N 0 0.0 4.0 51 80
+ 0.252843 0 2 tcp 1000 ------N 0 0.0 4.0 52 81
r 0.253099 2 3 tcp 1000 ------N 0 0.0 4.0 29 47
+ 0.253099 3 4 tcp 1000 ------N 0 0.0 4.0 29 47
- 0.253099 3 4 tcp 1000 ------N 0 0.0 4.0 29 47
- 0.253643 0 2 tcp 1000 ------N 0 0.0 4.0 52 81
- 0.253765 2 3 tcp 1000 ------N 0 0.0 4.0 32 51
r 0.255643 0 2 tcp 1000 ------N 0 0.0 4.0 51 80
+ 0.255643 2 3 tcp 1000 ------N 0 0.0 4.0 51 80
r 0.256144 3 2 ack 40 ------- 0 4.0 0.0 26 73
+ 0.256144 2 0 ack 40 ------- 0 4.0 0.0 26 73
- 0.256144 2 0 ack 40 ------- 0 4.0 0.0 26 73
r 0.256443 0 2 tcp 1000 ------N 0 0.0 4.0 52 81
+ 0.256443 2 3 tcp 1000 ------N 0 0.0 4.0 52 81
r 0.256597 4 3 ack 40 ------- 0 4.0 0.0 28 79
+ 0.256597 3 2 ack 40 ------- 0 4.0 0.0 28 79
- 0.256597 3 2 ack 40 ------- 0 4.0 0.0 28 79
r 0.257899 3 4 tcp 1000 ------N 0 0.0 4.0 29 47
+ 0.257899 4 3 ack 40 ------- 0 4.0 0.0 29 82
- 0.257899 4 3 ack 40 ------- 0 4.0 0.0 29 82
r 0.258176 2 0 ack 40 ------- 0 4.0 0.0 26 73
+ 0.258176 0 2 tcp 1000 ------N 0 0.0 4.0 53 83
- 0.258176 0 2 tcp 1000 ------N 0 0.0 4.0 53 83
+ 0.258176 0 2 tcp 1000 ------N 0 0.0 4.0 54 84
r 0.258432 2 3 tcp 1000 ------N 0 0.0 4.0 30 48
+ 0.258432 3 4 tcp 1000 ------N 0 0.0 4.0 30 48
- 0.258432 3 4 tcp 1000 ------N 0 0.0 4.0 30 48
- 0.258976 0 2 tcp 1000 ------N 0 0.0 4.0 54 84
- 0.259099 2 3 tcp 1000 ------N 0 0.0 4.0 33 53
r 0.260976 0 2 tcp 1000 ------N 0 0.0 4.0 53 83
+ 0.260976 2 3 tcp 1000 ------N 0 0.0 4.0 53 83
r 0.261477 3 2 ack 40 ------- 0 4.0 0.0 27 76
+ 0.261477 2 0 ack 40 ------- 0 4.0 0.0 27 76
- 0.261477 2 0 ack 40 ------- 0 4.0 0.0 27 76
r 0.261776 0 2 tcp 1000 ------N 0 0.0 4.0 54 84
+ 0.261776 2 3 tcp 1000 ------N 0 0.0 4.0 54 84
r 0.261931 4 3 ack 40 ------- 0 4.0 0.0 29 82
+ 0.261931 3 2 ack 40 ------- 0 4.0 0.0 29 82
- 0.261931 3 2 ack 40 ------- 0 4.0 0.0 29 82
r 0.263232 3 4 tcp 1000 ------N 0 0.0 4.0 30 48
+ 0.263232 4 3 ack 40 ------- 0 4.0 0.0 30 85
- 0.263232 4 3 ack 40 ------- 0 4.0 0.0 30 85
r 0.263509 2 0 ack 40 ------- 0 4.0 0.0 27 76